{"cursor":"5525","size":15,"audio":[],"currentlang":"en","article":"{{Chembox\n|  ImageFile = Poloniumwasserstoff.svg ImageSize = 150 PIN = Polonium hydride\n|  SystematicName = Polane Section1 = {{Chembox Identifiers CASNo = 31060-73-8\n|  PubChem = 23941 PubChem_Ref = ChemSpiderID = 22383 ChemSpiderID_Ref = ChEBI =\n|  30444 Gmelin = 25163, 169602\n}}\n| Section2 = {{Chembox Properties Formula = PoH 2 MolarMass = 210.998\n| g/mol Appearance = Density = Solubility = SolubleOther = MeltingPt = −35.3\n| °C BoilingPt = 36.1 °C\n| pKa = RefractIndex = Viscosity = Dipole =\n}}\n| Section8 = {{Chembox Related OtherCations = BiH 3HAt\n| OtherAnions = H 2O H2 SH 2Se H2 Te\n  }} }}\n\n'Polonium hydride' (also known as 'polonium dihydride', 'hydrogen polonide', or\n'polane') is a chemical compound with the formula PoH 2. It is a\nliquid at room temperature. It is very unstable chemically and tends to\ndecompose into elemental polonium and hydrogen; like all polonium compounds, it\nis highly radioactive. It is a volatile and very labile compound, from which\nmany polonides can be derived.\n","linknr":314,"url":"Hydrogen_polonide","recorded":1375692168,"links":["/w/index.php?title=Polonium_hydride&action=edit","/w/index.php?title=Polonium_hydride&action=edit","//bits.wikimedia.org/favicon/wikipedia.ico","/w/opensearch_desc.php","//en.wikipedia.org/w/api.php?action=rsd","//creativecommons.org/licenses/by-sa/3.0/","/w/index.php?title=Special:RecentChanges&feed=atom","http://en.wikipedia.org/wiki/Polonium_hydride","//bits.wikimedia.org/en.wikipedia.org/load.php?debug=false&lang=en&modules=ext.gadget.DRN-wizard%2CReferenceTooltips%2Ccharinsert%2Cteahouse%7Cext.rtlcite%2Cwikihiero%7Cext.uls.nojs%7Cmediawiki.legacy.commonPrint%2Cshared%7Cmw.PopUpMediaTransform%7Cskins.vector&only=styles&skin=vector&*","//bits.wikimedia.org/en.wikipedia.org/load.php?debug=false&lang=en&modules=ext.visualEditor.viewPageTarget.noscript&only=styles&skin=vector&*","//bits.wikimedia.org/en.wikipedia.org/load.php?debug=false&lang=en&modules=site&only=styles&skin=vector&*","//bits.wikimedia.org/en.wikipedia.org/load.php?debug=false&lang=en&modules=startup&only=scripts&skin=vector&*","//bits.wikimedia.org/geoiplookup","//meta.wikimedia.org","/w/index.php?title=Hydrogen_polonide&redirect=no","#mw-navigation","#p-search","/wiki/File:Poloniumwasserstoff.svg","//upload.wikimedia.org/wikipedia/commons/thumb/0/09/Poloniumwasserstoff.svg/150px-Poloniumwasserstoff.svg.png","/wiki/Preferred_IUPAC_name","/wiki/IUPAC_nomenclature","/wiki/CAS_registry_number","http://www.commonchemistry.org/ChemicalDetail.aspx?ref=31060-73-8","/wiki/PubChem","http://pubchem.ncbi.nlm.nih.gov/summary/summary.cgi?cid=23941","//upload.wikimedia.org/wikipedia/en/thumb/f/fb/Yes_check.svg/7px-Yes_check.svg.png","/wiki/ChemSpider","http://www.chemspider.com/22383","//upload.wikimedia.org/wikipedia/en/thumb/f/fb/Yes_check.svg/7px-Yes_check.svg.png","/wiki/ChEBI","https://www.ebi.ac.uk/chebi/searchId.do?chebiId=30444","/wiki/Gmelin_database","/wiki/Chemical_formula","/wiki/Molar_mass","/wiki/Melting_point","#cite_note-HollemanAF-1","/wiki/Boiling_point","#cite_note-HollemanAF-1","/wiki/Ion","/wiki/Properties_of_water","/wiki/Hydrogen_sulfide","/wiki/Hydrogen_selenide","/wiki/Hydrogen_telluride","/wiki/Ion","/wiki/Bismuthine","/wiki/Hydrogen_astatide","/wiki/Standard_state","/wiki/Wikipedia:Chemical_infobox#References","/wiki/Polonium","/wiki/Hydrogen","/wiki/Liquid","/wiki/Polonium","/wiki/Hydrogen","/wiki/Volatility_(chemistry)","/wiki/Lability","/wiki/Polonide","#cite_note-2","/w/index.php?title=Polonium_hydride&action=edit&section=1","/w/index.php?title=Polonium_hydride&veaction=edit&section=1","/wiki/Polonium_tetrachloride","/wiki/Lithium_aluminium_hydride","/wiki/Hydrochloric_acid","/wiki/Magnesium_polonide","/wiki/Radiolysis","#cite_note-Bagnall-3","/wiki/Magnesium","/wiki/Diffusion","/wiki/Palladium","/wiki/Platinum","/wiki/Palladium_hydride","#cite_note-Bagnall-3","/wiki/Nascent_hydrogen","#cite_note-Bagnall-3","/w/index.php?title=Polonium_hydride&action=edit&section=2","/w/index.php?title=Polonium_hydride&veaction=edit&section=2","/wiki/Metal","/wiki/Metalloid","/wiki/Hydrogen_halide","/wiki/Hydrogen_chloride","/wiki/Metal_hydride","/wiki/Stannane","/wiki/Hydrogen_selenide","/wiki/Hydrogen_telluride","/wiki/Borderline_hydrides","/wiki/Endothermic","/wiki/Kilojoule_per_mole","/wiki/Chalcogenide","/wiki/Van_der_Waals_force","/wiki/Water","/wiki/Hydrogen_bonding","/wiki/Salt_(chemistry)","/wiki/Polonide","/wiki/Anion","/wiki/Thiol","/wiki/Selenol","/wiki/Tellurol","/w/index.php?title=Lead_polonide&action=edit&redlink=1","/wiki/Lead","/wiki/Alpha_decay","#cite_note-4","/wiki/Radioactivity","#cite_note-Bagnall-3","/w/index.php?title=Polonium_hydride&action=edit&section=3","/w/index.php?title=Polonium_hydride&veaction=edit&section=3","//de.wikipedia.org/wiki/Main_Page","#cite_ref-HollemanAF_1-0","#cite_ref-HollemanAF_1-1","/wiki/International_Standard_Book_Number","/wiki/Special:BookSources/978-3-11-017770-1","#cite_ref-2","/wiki/International_Standard_Book_Number","/wiki/Special:BookSources/0-12-352651-5","#cite_ref-Bagnall_3-0","#cite_ref-Bagnall_3-1","#cite_ref-Bagnall_3-2","#cite_ref-Bagnall_3-3","http://www.google.ru/books?id=8qePsa3V8GQC","/wiki/Academic_Press","/wiki/International_Standard_Book_Number","/wiki/Special:BookSources/9780120236046","#cite_ref-4","/wiki/Angewandte_Chemie","/wiki/Digital_object_identifier","http://dx.doi.org/10.1002%2Fange.19590710902","/wiki/Template:Polonium_compounds","/wiki/Template_talk:Polonium_compounds","//en.wikipedia.org/w/index.php?title=Template:Polonium_compounds&action=edit","/wiki/Polonium","/wiki/Lithium_polonide","/wiki/Sodium_polonide","/wiki/Potassium_polonide","/w/index.php?title=Rubidium_polonide&action=edit&redlink=1","/w/index.php?title=Caesium_polonide&action=edit&redlink=1","/w/index.php?title=Beryllium_polonide&action=edit&redlink=1","/wiki/Magnesium_polonide","/w/index.php?title=Calcium_polonide&action=edit&redlink=1","/w/index.php?title=Strontium_polonide&action=edit&redlink=1","/w/index.php?title=Barium_polonide&action=edit&redlink=1","/w/index.php?title=Zinc_polonide&action=edit&redlink=1","/w/index.php?title=Cadmium_polonide&action=edit&redlink=1","/w/index.php?title=Mercury_polonide&action=edit&redlink=1","/w/index.php?title=Lead_polonide&action=edit&redlink=1","/w/index.php?title=Polonium_difluoride&action=edit&redlink=1","/wiki/Polonium_dichloride","/wiki/Polonium_dibromide","/w/index.php?title=Polonium_diiodide&action=edit&redlink=1","/wiki/Polonium_monoxide","/w/index.php?title=Polonium_monosulfide&action=edit&redlink=1","/w/index.php?title=Polonium(II)_hydroxide&action=edit&redlink=1","/w/index.php?title=Polonium_dinitrate&action=edit&redlink=1","/w/index.php?title=Polonium_sulfite&action=edit&redlink=1","/w/index.php?title=Polonium_selenite&action=edit&redlink=1","/w/index.php?title=Polonium_tetrafluoride&action=edit&redlink=1","/wiki/Polonium_tetrachloride","/w/index.php?title=Polonium_tetrabromide&action=edit&redlink=1","/w/index.php?title=Polonium_tetraiodide&action=edit&redlink=1","/w/index.php?title=Polonium_dichloride_dibromide&action=edit&redlink=1","/wiki/Polonium_dioxide","/w/index.php?title=Polonium(IV)_oxide_hydroxide&action=edit&redlink=1","/w/index.php?title=Polonium_disulfate&action=edit&redlink=1","/w/index.php?title=Polonium_selenate&action=edit&redlink=1","/w/index.php?title=Polonium_tetranitrate&action=edit&redlink=1","/w/index.php?title=Polonium_carbonate&action=edit&redlink=1","/w/index.php?title=Polonium_phosphate&action=edit&redlink=1","/w/index.php?title=Polonium_chromate&action=edit&redlink=1","/w/index.php?title=Polonium_iodate&action=edit&redlink=1","/w/index.php?title=Hydrogen_hexabromopolonite&action=edit&redlink=1","/w/index.php?title=Caesium_hexachloropolonite&action=edit&redlink=1","/w/index.php?title=Caesium_hexabromopolonite&action=edit&redlink=1","/w/index.php?title=Caesium_hexaiodopolonite&action=edit&redlink=1","/w/index.php?title=Polonous_acid&action=edit&redlink=1","/w/index.php?title=Potassium_polonite&action=edit&redlink=1","/w/index.php?title=Polonium_oxalate&action=edit&redlink=1","/w/index.php?title=Polonium_acetate&action=edit&redlink=1","/w/index.php?title=Polonium_cyanide&action=edit&redlink=1","/wiki/Polonium_hexafluoride","/wiki/Polonium_trioxide","/wiki/Template:Hydrogen_compounds","/wiki/Template_talk:Hydrogen_compounds","//en.wikipedia.org/w/index.php?title=Template:Hydrogen_compounds&action=edit","/wiki/Hydrogen","/wiki/Arsenous_acid","/wiki/Arsenic_acid","/wiki/Hydrogen_astatide","/wiki/Fluorosulfuric_acid","/wiki/Fluoroboric_acid","/wiki/Hydrogen_bromide","/wiki/Hypobromous_acid","/wiki/Bromous_acid","/wiki/Bromic_acid","/wiki/Perbromic_acid","/wiki/Hydrogen_chloride","/wiki/Hypochlorous_acid","/wiki/Chlorous_acid","/wiki/Chloric_acid","/wiki/Perchloric_acid","/wiki/Hydrogen_cyanide","/wiki/Fulminic_acid","/wiki/Chromic_acid","/wiki/Carbonic_acid","/wiki/Thiocarbonic_acid","/wiki/Hydrogen_fluoride","/wiki/Hydrogen_iodide","/wiki/Hypoiodous_acid","/wiki/Iodous_acid","/wiki/Iodic_acid","/wiki/Periodic_acid","/wiki/Molybdic_acid","/wiki/Hydrogen_isocyanide","/wiki/Isocyanic_acid","/wiki/Nitroxyl","/wiki/Nitric_acid","/wiki/Hyponitrous_acid","/wiki/Nitrosylsulfuric_acid","/wiki/Sulfamic_acid","/wiki/Hypofluorous_acid","/wiki/Properties_of_water","/wiki/Hydrogen_peroxide","/wiki/Trioxidane","/wiki/Hypophosphorous_acid","/wiki/Phosphorous_acid","/wiki/Phosphoric_acid","/wiki/Pyrophosphoric_acid","/wiki/Triphosphoric_acid","/wiki/Chloroplatinic_acid","/wiki/Hydrogen_sulfide","/wiki/Hydrogen_selenide","/wiki/Selenous_acid","/wiki/Selenic_acid","/wiki/Silicic_acid","/wiki/Hexafluorosilicic_acid","/wiki/Thiocyanic_acid","/wiki/Thiocyanic_acid","/wiki/Sulfurous_acid","/wiki/Sulfuric_acid","/wiki/Peroxymonosulfuric_acid","/wiki/Thiosulfuric_acid","/wiki/Dithionic_acid","/wiki/Disulfuric_acid","/wiki/Peroxydisulfuric_acid","/wiki/Trifluoromethanesulfonic_acid","/wiki/Hydrogen_telluride","/wiki/Tellurous_acid","/wiki/Telluric_acid","/wiki/Titanic_acid","/wiki/Cobalt_tetracarbonyl_hydride","//en.wikipedia.org/w/index.php?title=Special:CentralAutoLogin/start&type=1x1&from=enwiki","http://en.wikipedia.org/w/index.php?title=Polonium_hydride&oldid=540667570","/wiki/Help:Categories","/wiki/Category:Polonium_compounds","/wiki/Category:Hydrogen_compounds","/wiki/Category:Articles_containing_unverified_chemical_infoboxes","/w/index.php?title=Special:UserLogin&returnto=Polonium+hydride&type=signup","/w/index.php?title=Special:UserLogin&returnto=Polonium+hydride","/wiki/Polonium_hydride","/wiki/Talk:Polonium_hydride","#","/wiki/Polonium_hydride","/w/index.php?title=Polonium_hydride&action=edit","/w/index.php?title=Polonium_hydride&veaction=edit","/w/index.php?title=Polonium_hydride&action=history","#","/w/index.php","//bits.wikimedia.org/static-1.22wmf12/skins/vector/images/search-ltr.png?303-4","/wiki/Main_Page","/wiki/Main_Page","/wiki/Portal:Contents","/wiki/Portal:Featured_content","/wiki/Portal:Current_events","/wiki/Special:Random","https://donate.wikimedia.org/wiki/Special:FundraiserRedirector?utm_source=donate&utm_medium=sidebar&utm_campaign=C13_en.wikipedia.org&uselang=en","/wiki/Help:Contents","/wiki/Wikipedia:About","/wiki/Wikipedia:Community_portal","/wiki/Special:RecentChanges","//en.wikipedia.org/wiki/Wikipedia:Contact_us","/wiki/Special:WhatLinksHere/Polonium_hydride","/wiki/Special:RecentChangesLinked/Polonium_hydride","/wiki/Wikipedia:File_Upload_Wizard","/wiki/Special:SpecialPages","/w/index.php?title=Polonium_hydride&oldid=540667570","/w/index.php?title=Polonium_hydride&action=info","//www.wikidata.org/wiki/Q417013","/w/index.php?title=Special:Cite&page=Polonium_hydride&id=540667570","/w/index.php?title=Special:Book&bookcmd=book_creator&referer=Polonium+hydride","/w/index.php?title=Special:Book&bookcmd=render_article&arttitle=Polonium+hydride&oldid=540667570&writer=rl","/w/index.php?title=Polonium_hydride&printable=yes","//cs.wikipedia.org/wiki/Polan","//de.wikipedia.org/wiki/Poloniumwasserstoff","//el.wikipedia.org/wiki/%CE%A5%CE%B4%CF%81%CE%AF%CE%B4%CE%B9%CE%BF_%CF%84%CE%BF%CF%85_%CF%80%CE%BF%CE%BB%CF%89%CE%BD%CE%AF%CE%BF%CF%85","//fa.wikipedia.org/wiki/%D9%87%DB%8C%D8%AF%D8%B1%D9%88%DA%98%D9%86_%D9%BE%D9%88%D9%84%D9%88%D9%86%DB%8C%D8%AF","//hu.wikipedia.org/wiki/Hidrog%C3%A9n-polonid","//nl.wikipedia.org/wiki/Waterstofpolonide","//ja.wikipedia.org/wiki/%E3%83%9D%E3%83%AD%E3%83%8B%E3%82%A6%E3%83%A0%E5%8C%96%E6%B0%B4%E7%B4%A0","//pt.wikipedia.org/wiki/Poloneto_de_hidrog%C3%AAnio","//ru.wikipedia.org/wiki/%D0%93%D0%B8%D0%B4%D1%80%D0%B8%D0%B4_%D0%BF%D0%BE%D0%BB%D0%BE%D0%BD%D0%B8%D1%8F(II)","//sv.wikipedia.org/wiki/Div%C3%A4tepolonid","//zh.wikipedia.org/wiki/%E9%92%8B%E5%8C%96%E6%B0%A2","#","//www.wikidata.org/wiki/Q417013#sitelinks-wikipedia","//en.wikipedia.org/wiki/Wikipedia:Text_of_Creative_Commons_Attribution-ShareAlike_3.0_Unported_License","//creativecommons.org/licenses/by-sa/3.0/","//wikimediafoundation.org/wiki/Terms_of_Use","//wikimediafoundation.org/wiki/Privacy_policy","//www.wikimediafoundation.org/","//wikimediafoundation.org/wiki/Privacy_policy","/wiki/Wikipedia:About","/wiki/Wikipedia:General_disclaimer","//en.wikipedia.org/wiki/Wikipedia:Contact_us","//en.m.wikipedia.org/wiki/Polonium_hydride","//wikimediafoundation.org/","//bits.wikimedia.org/images/wikimedia-button.png","//www.mediawiki.org/","//bits.wikimedia.org/static-1.22wmf12/skins/common/images/poweredby_mediawiki_88x31.png","//bits.wikimedia.org/en.wikipedia.org/load.php?debug=false&lang=en&modules=site&only=scripts&skin=vector&*"],"instances":["chemistry","chemistry"],"pdf":[],"categories":["Polonium compounds","Hydrogen compounds"],"headings":["Preparation","Properties","References"],"image":["//upload.wikimedia.org/wikipedia/commons/thumb/0/09/Poloniumwasserstoff.svg/150px-Poloniumwasserstoff.svg.png","//upload.wikimedia.org/wikipedia/en/thumb/f/fb/Yes_check.svg/7px-Yes_check.svg.png","//upload.wikimedia.org/wikipedia/en/thumb/f/fb/Yes_check.svg/7px-Yes_check.svg.png","//en.wikipedia.org/w/index.php?title=Special:CentralAutoLogin/start&type=1x1&from=enwiki","//bits.wikimedia.org/static-1.22wmf12/skins/vector/images/search-ltr.png?303-4","//bits.wikimedia.org/images/wikimedia-button.png","//bits.wikimedia.org/static-1.22wmf12/skins/common/images/poweredby_mediawiki_88x31.png"],"tags":[["volatility","chemistry"],["salt","chemistry"]],"members":["salt","volatility"],"related":["Bismuthine","Hydrogen_astatide","Properties_of_water","Hydrogen_sulfide","Hydrogen_selenide","Hydrogen_telluride","Polonium","Hydrogen","Liquid","Polonium","Hydrogen","Volatility_(chemistry)","Lability","Polonide","Polonium_tetrachloride","Lithium_aluminium_hydride","Hydrochloric_acid","Magnesium_polonide","Radiolysis","Magnesium","Diffusion","Palladium","Platinum","Palladium_hydride","Nascent_hydrogen","Metal","Metalloid","Hydrogen_halide","Hydrogen_chloride","Metal_hydride","Stannane","Hydrogen_selenide","Hydrogen_telluride","Borderline_hydrides","Endothermic","Kilojoule_per_mole","Chalcogenide","Van_der_Waals_force","Water","Hydrogen_bonding","Salt_(chemistry)","Polonide","Anion","Thiol","Selenol","Tellurol","Lead_polonide","Lead","Alpha_decay","Radioactivity"]}