{"cursor":"5145","size":15,"audio":[],"currentlang":"en","article":"{{chembox\n| Watchedfields = changed verifiedrevid = 438998048 Name = Hydrogen telluride\n| ImageFileL1 = Hydrogen-telluride-2D-dimensions.png ImageSizeL1 = 130px\n| ImageNameL1 = Structural diagram of the hydrogen telluride molecule\n| ImageFileR1 = Hydrogen-telluride-3D-vdW.png ImageSizeR1 = 120px ImageNameR1 =\n| Space-filling model of the hydrogen telluride molecule IUPACName = hydrogen\n| telluride OtherNames = hydrotelluric acid tellane tellurium hydride\n| Section1 = {{Chembox Identifiers CASNo_Ref = CASNo = 7783-09-7 PubChem =\n| 21765 RTECS =\n  }}\n| Section2 = {{Chembox Properties Formula = H 2Te MolarMass = 129.6158\n| g mol −1 Appearance = colourless gas Density = 3.310\n| g/cm 3, gas  2.57 g/cm 3 (-20 °C, liquid) Solubility =\n| 0.70 g/100 mL MeltingPt = −49 °C (224 K) (  BoilingPt = −2.2 °C\n| (271.8 K)(unstable above -2 °C) pKa = 2.6\n  }}\n| Section4 = {{Chembox Thermochemistry DeltaHf = 0.7684 kJ/g DeltaHc = Entropy =\n| HeatCapacity =\n  }}\n| Section3 = {{Chembox Structure MolShape = bent Dipole =\n  }}\n| Section7 = {{Chembox Hazards ExternalMSDS = MainHazards = toxic FlashPt =\n| RPhrases = SPhrases =\n  }}\n| Section8 = {{Chembox Related OtherAnions = H 2O H2 SH 2Se H2 Po OtherCations =\n| Na 2Te Ag 2Te OtherCpds = telluric acid \n| tellurous acid\n  }} }}\n\n'Hydrogen telluride' (tellurane) is the inorganic compound with the formula\nH 2Te. The simplest hydride of tellurium, it is rarely encountered\nbecause it decomposes rapidly to the constituent elements. However, the gas can\nexist at very low concentrations long enough to be readily detected by the odour\nof rotting garlic or rotting leeks. Most compounds with Te-H bonds (tellurols)\nare unstable with respect to loss of H 2. H 2Te is\nchemically and structurally similar to hydrogen selenide, both are acidic. The\nH-Te-H angle is about 90°. Volatile tellurium compounds often have unpleasant\nodours, reminiscent of decayed leeks or garlic. Greenwood, N.\nN.; & Earnshaw, A. (1997). Chemistry of the Elements (2nd Edn.), Oxford:Butterworth-\nHeinemann. ISBN 0-7506-3365-4.\n","linknr":252,"url":"Hydrogen_telluride","recorded":1375692172,"links":["/w/index.php?title=Hydrogen_telluride&action=edit","/w/index.php?title=Hydrogen_telluride&action=edit","//bits.wikimedia.org/favicon/wikipedia.ico","/w/opensearch_desc.php","//en.wikipedia.org/w/api.php?action=rsd","//creativecommons.org/licenses/by-sa/3.0/","/w/index.php?title=Special:RecentChanges&feed=atom","http://en.wikipedia.org/wiki/Hydrogen_telluride","//bits.wikimedia.org/en.wikipedia.org/load.php?debug=false&lang=en&modules=ext.gadget.DRN-wizard%2CReferenceTooltips%2Ccharinsert%2Cteahouse%7Cext.rtlcite%2Cwikihiero%7Cext.uls.nojs%7Cmediawiki.legacy.commonPrint%2Cshared%7Cmw.PopUpMediaTransform%7Cskins.vector&only=styles&skin=vector&*","//bits.wikimedia.org/en.wikipedia.org/load.php?debug=false&lang=en&modules=ext.visualEditor.viewPageTarget.noscript&only=styles&skin=vector&*","//bits.wikimedia.org/en.wikipedia.org/load.php?debug=false&lang=en&modules=site&only=styles&skin=vector&*","//bits.wikimedia.org/en.wikipedia.org/load.php?debug=false&lang=en&modules=startup&only=scripts&skin=vector&*","//bits.wikimedia.org/geoiplookup","//meta.wikimedia.org","#mw-navigation","#p-search","/wiki/File:Hydrogen-telluride-2D-dimensions.png","//upload.wikimedia.org/wikipedia/commons/thumb/f/f8/Hydrogen-telluride-2D-dimensions.png/130px-Hydrogen-telluride-2D-dimensions.png","/wiki/File:Hydrogen-telluride-3D-vdW.png","//upload.wikimedia.org/wikipedia/commons/thumb/d/da/Hydrogen-telluride-3D-vdW.png/120px-Hydrogen-telluride-3D-vdW.png","/wiki/International_Union_of_Pure_and_Applied_Chemistry_nomenclature","/wiki/CAS_registry_number","http://www.commonchemistry.org/ChemicalDetail.aspx?ref=7783-09-7","//upload.wikimedia.org/wikipedia/en/thumb/f/fb/Yes_check.svg/7px-Yes_check.svg.png","/wiki/PubChem","http://pubchem.ncbi.nlm.nih.gov/summary/summary.cgi?cid=21765","/wiki/Chemical_formula","/wiki/Molar_mass","/wiki/Density","/wiki/Melting_point","#cite_note-1","/wiki/Boiling_point","/wiki/Solubility","/wiki/Water","/wiki/Acid_dissociation_constant","/wiki/Molecular_geometry","/wiki/Standard_enthalpy_change_of_formation","/wiki/Worker_safety_and_health","/wiki/Ion","/wiki/Water_(molecule)","/wiki/Hydrogen_sulfide","/wiki/Hydrogen_selenide","/wiki/Hydrogen_polonide","/wiki/Ion","/wiki/Sodium_telluride","/wiki/Silver(I)_telluride","/wiki/Telluric_acid","/wiki/Tellurous_acid","//upload.wikimedia.org/wikipedia/en/thumb/f/fb/Yes_check.svg/14px-Yes_check.svg.png","//en.wikipedia.org/w/index.php?title=Special:ComparePages&rev1=438998048&page2=Hydrogen+telluride","/wiki/Wikipedia:WikiProject_Chemicals/Chembox_validation","//upload.wikimedia.org/wikipedia/en/thumb/f/fb/Yes_check.svg/10px-Yes_check.svg.png","//upload.wikimedia.org/wikipedia/commons/thumb/a/a2/X_mark.svg/10px-X_mark.svg.png","/wiki/Standard_state","/wiki/Wikipedia:Chemical_infobox#References","/wiki/Inorganic_compound","/wiki/Hydrogen","/wiki/Telluride","/wiki/Tellurium","/wiki/Tellurol","/wiki/Hydrogen_selenide","#cite_note-Greenwood-2","#Synthesis","#Preparation","#Properties","#See_also","#References","/w/index.php?title=Hydrogen_telluride&action=edit&section=1","/w/index.php?title=Hydrogen_telluride&veaction=edit&section=1","#cite_note-petragnani-3","/wiki/Ammonia","/wiki/Sodium_borohydride","#cite_note-petragnani-3","/w/index.php?title=Hydrogen_telluride&action=edit&section=2","/w/index.php?title=Hydrogen_telluride&veaction=edit&section=2","#cite_note-4","/w/index.php?title=Aluminum_telluride&action=edit&redlink=1","#cite_note-Brauer-5","/w/index.php?title=Hydrogen_telluride&action=edit&section=3","/w/index.php?title=Hydrogen_telluride&veaction=edit&section=3","/wiki/Endothermic","#cite_note-wiberg2001-6","/wiki/Phosphoric_acid","#cite_note-wiberg2001-6","#cite_note-7","/w/index.php?title=Hydrogen_telluride&action=edit&section=4","/w/index.php?title=Hydrogen_telluride&veaction=edit&section=4","/wiki/Dimethyl_telluride","/w/index.php?title=Hydrogen_telluride&action=edit&section=5","/w/index.php?title=Hydrogen_telluride&veaction=edit&section=5","#cite_ref-1","/wiki/CRC_Handbook_of_Chemistry_and_Physics","/wiki/CRC_Press","/wiki/International_Standard_Book_Number","/wiki/Special:BookSources/0-8493-0487-3","#cite_ref-Greenwood_2-0","/wiki/Special:BookSources/0750633654","#cite_ref-petragnani_3-0","#cite_ref-petragnani_3-1","/wiki/International_Standard_Book_Number","/wiki/Special:BookSources/0-08-045310-4","#cite_ref-4","#cite_ref-Brauer_5-0","#cite_ref-wiberg2001_6-0","#cite_ref-wiberg2001_6-1","/wiki/International_Standard_Book_Number","/wiki/Special:BookSources/0-12-352651-5","/wiki/Help:CS1_errors#parameter_ignored","#cite_ref-7","/wiki/Template:Hydrogen_compounds","/wiki/Template_talk:Hydrogen_compounds","//en.wikipedia.org/w/index.php?title=Template:Hydrogen_compounds&action=edit","/wiki/Hydrogen","/wiki/Arsenous_acid","/wiki/Arsenic_acid","/wiki/Hydrogen_astatide","/wiki/Fluorosulfuric_acid","/wiki/Fluoroboric_acid","/wiki/Hydrogen_bromide","/wiki/Hypobromous_acid","/wiki/Bromous_acid","/wiki/Bromic_acid","/wiki/Perbromic_acid","/wiki/Hydrogen_chloride","/wiki/Hypochlorous_acid","/wiki/Chlorous_acid","/wiki/Chloric_acid","/wiki/Perchloric_acid","/wiki/Hydrogen_cyanide","/wiki/Fulminic_acid","/wiki/Chromic_acid","/wiki/Carbonic_acid","/wiki/Thiocarbonic_acid","/wiki/Hydrogen_fluoride","/wiki/Hydrogen_iodide","/wiki/Hypoiodous_acid","/wiki/Iodous_acid","/wiki/Iodic_acid","/wiki/Periodic_acid","/wiki/Molybdic_acid","/wiki/Hydrogen_isocyanide","/wiki/Isocyanic_acid","/wiki/Nitroxyl","/wiki/Nitric_acid","/wiki/Hyponitrous_acid","/wiki/Nitrosylsulfuric_acid","/wiki/Sulfamic_acid","/wiki/Hypofluorous_acid","/wiki/Properties_of_water","/wiki/Hydrogen_peroxide","/wiki/Trioxidane","/wiki/Hypophosphorous_acid","/wiki/Phosphorous_acid","/wiki/Phosphoric_acid","/wiki/Pyrophosphoric_acid","/wiki/Triphosphoric_acid","/wiki/Chloroplatinic_acid","/wiki/Hydrogen_sulfide","/wiki/Hydrogen_selenide","/wiki/Selenous_acid","/wiki/Selenic_acid","/wiki/Silicic_acid","/wiki/Hexafluorosilicic_acid","/wiki/Thiocyanic_acid","/wiki/Thiocyanic_acid","/wiki/Sulfurous_acid","/wiki/Sulfuric_acid","/wiki/Peroxymonosulfuric_acid","/wiki/Thiosulfuric_acid","/wiki/Dithionic_acid","/wiki/Disulfuric_acid","/wiki/Peroxydisulfuric_acid","/wiki/Trifluoromethanesulfonic_acid","/wiki/Tellurous_acid","/wiki/Telluric_acid","/wiki/Titanic_acid","/wiki/Polonium_hydride","/wiki/Cobalt_tetracarbonyl_hydride","//en.wikipedia.org/w/index.php?title=Special:CentralAutoLogin/start&type=1x1&from=enwiki","http://en.wikipedia.org/w/index.php?title=Hydrogen_telluride&oldid=562566752","/wiki/Help:Categories","/wiki/Category:Hydrogen_compounds","/wiki/Category:Tellurides","/wiki/Category:Pages_with_citations_using_unsupported_parameters","/wiki/Category:Chemical_pages_needing_a_ChemSpiderID","/wiki/Category:Chemboxes_which_contain_changes_to_watched_fields","/w/index.php?title=Special:UserLogin&returnto=Hydrogen+telluride&type=signup","/w/index.php?title=Special:UserLogin&returnto=Hydrogen+telluride","/wiki/Hydrogen_telluride","/wiki/Talk:Hydrogen_telluride","#","/wiki/Hydrogen_telluride","/w/index.php?title=Hydrogen_telluride&action=edit","/w/index.php?title=Hydrogen_telluride&veaction=edit","/w/index.php?title=Hydrogen_telluride&action=history","#","/w/index.php","//bits.wikimedia.org/static-1.22wmf12/skins/vector/images/search-ltr.png?303-4","/wiki/Main_Page","/wiki/Main_Page","/wiki/Portal:Contents","/wiki/Portal:Featured_content","/wiki/Portal:Current_events","/wiki/Special:Random","https://donate.wikimedia.org/wiki/Special:FundraiserRedirector?utm_source=donate&utm_medium=sidebar&utm_campaign=C13_en.wikipedia.org&uselang=en","/wiki/Help:Contents","/wiki/Wikipedia:About","/wiki/Wikipedia:Community_portal","/wiki/Special:RecentChanges","//en.wikipedia.org/wiki/Wikipedia:Contact_us","/wiki/Special:WhatLinksHere/Hydrogen_telluride","/wiki/Special:RecentChangesLinked/Hydrogen_telluride","/wiki/Wikipedia:File_Upload_Wizard","/wiki/Special:SpecialPages","/w/index.php?title=Hydrogen_telluride&oldid=562566752","/w/index.php?title=Hydrogen_telluride&action=info","//www.wikidata.org/wiki/Q411266","/w/index.php?title=Special:Cite&page=Hydrogen_telluride&id=562566752","/w/index.php?title=Special:Book&bookcmd=book_creator&referer=Hydrogen+telluride","/w/index.php?title=Special:Book&bookcmd=render_article&arttitle=Hydrogen+telluride&oldid=562566752&writer=rl","/w/index.php?title=Hydrogen_telluride&printable=yes","//cs.wikipedia.org/wiki/Tellan","//de.wikipedia.org/wiki/Tellurwasserstoff","//el.wikipedia.org/wiki/%CE%A5%CE%B4%CF%81%CE%BF%CF%84%CE%B5%CE%BB%CE%BB%CE%BF%CF%8D%CF%81%CE%B9%CE%BF","//es.wikipedia.org/wiki/%C3%81cido_telurh%C3%ADdrico","//fa.wikipedia.org/wiki/%D9%87%DB%8C%D8%AF%D8%B1%D9%88%DA%98%D9%86_%D8%AA%D9%84%D9%88%D8%B1%DB%8C%D8%AF","//it.wikipedia.org/wiki/Tellururo_di_idrogeno","//hu.wikipedia.org/wiki/Hidrog%C3%A9n-tellurid","//nl.wikipedia.org/wiki/Waterstoftelluride","//ja.wikipedia.org/wiki/%E3%83%86%E3%83%AB%E3%83%AB%E5%8C%96%E6%B0%B4%E7%B4%A0","//pl.wikipedia.org/wiki/Tellurowod%C3%B3r","//pt.wikipedia.org/wiki/Telureto_de_hidrog%C3%AAnio","//ru.wikipedia.org/wiki/%D0%A2%D0%B5%D0%BB%D0%BB%D1%83%D1%80%D0%BE%D0%B2%D0%BE%D0%B4%D0%BE%D1%80%D0%BE%D0%B4","//simple.wikipedia.org/wiki/Hydrogen_telluride","//sv.wikipedia.org/wiki/Div%C3%A4tetellurid","//zh.wikipedia.org/wiki/%E7%A2%B2%E5%8C%96%E6%B0%A2","#","//www.wikidata.org/wiki/Q411266#sitelinks-wikipedia","//en.wikipedia.org/wiki/Wikipedia:Text_of_Creative_Commons_Attribution-ShareAlike_3.0_Unported_License","//creativecommons.org/licenses/by-sa/3.0/","//wikimediafoundation.org/wiki/Terms_of_Use","//wikimediafoundation.org/wiki/Privacy_policy","//www.wikimediafoundation.org/","//wikimediafoundation.org/wiki/Privacy_policy","/wiki/Wikipedia:About","/wiki/Wikipedia:General_disclaimer","//en.wikipedia.org/wiki/Wikipedia:Contact_us","//en.m.wikipedia.org/wiki/Hydrogen_telluride","//wikimediafoundation.org/","//bits.wikimedia.org/images/wikimedia-button.png","//www.mediawiki.org/","//bits.wikimedia.org/static-1.22wmf12/skins/common/images/poweredby_mediawiki_88x31.png","//bits.wikimedia.org/en.wikipedia.org/load.php?debug=false&lang=en&modules=site&only=scripts&skin=vector&*"],"instances":["molecule"],"pdf":[],"categories":["Hydrogen compounds","Tellurides"],"headings":["Synthesis","Preparation","Properties","See also","References"],"image":["//upload.wikimedia.org/wikipedia/commons/thumb/f/f8/Hydrogen-telluride-2D-dimensions.png/130px-Hydrogen-telluride-2D-dimensions.png","//upload.wikimedia.org/wikipedia/commons/thumb/d/da/Hydrogen-telluride-3D-vdW.png/120px-Hydrogen-telluride-3D-vdW.png","//upload.wikimedia.org/wikipedia/en/thumb/f/fb/Yes_check.svg/7px-Yes_check.svg.png","//upload.wikimedia.org/wikipedia/en/thumb/f/fb/Yes_check.svg/14px-Yes_check.svg.png","//upload.wikimedia.org/wikipedia/en/thumb/f/fb/Yes_check.svg/10px-Yes_check.svg.png","//upload.wikimedia.org/wikipedia/commons/thumb/a/a2/X_mark.svg/10px-X_mark.svg.png","//en.wikipedia.org/w/index.php?title=Special:CentralAutoLogin/start&type=1x1&from=enwiki","//bits.wikimedia.org/static-1.22wmf12/skins/vector/images/search-ltr.png?303-4","//bits.wikimedia.org/images/wikimedia-button.png","//bits.wikimedia.org/static-1.22wmf12/skins/common/images/poweredby_mediawiki_88x31.png"],"tags":[["water","molecule"],["silver(i_telluride"]],"members":["water"],"related":["Water_(molecule)","Hydrogen_sulfide","Hydrogen_selenide","Hydrogen_polonide","Sodium_telluride","Silver(I)_telluride","Telluric_acid","Tellurous_acid","Inorganic_compound","Hydrogen","Telluride","Tellurium","Tellurol","Hydrogen_selenide","Ammonia","Sodium_borohydride","Aluminum_telluride","Endothermic","Phosphoric_acid","Dimethyl_telluride"]}